<?xml version="1.0"?>
<VTKFile type="ImageData" version="0.1" byte_order="LittleEndian" header_type="UInt32" compressor="vtkZLibDataCompressor">
  <RD format_version="6">
    <description>
      Lotka-Volterra with diffusion.
      &lt;a href=&quot;http://en.wikipedia.org/wiki/Lotka-Volterra_equations&quot;&gt;http://en.wikipedia.org/wiki/Lotka-Volterra_equations&lt;/a&gt;

      A model of predator-prey cycles. Here &apos;a&apos; is the concentration of the prey at each location and &apos;b&apos; the predator.

      In this pattern we are plotting &apos;a&apos; and &apos;b&apos; orthogonally to each other - you might need to
      rotate the scene to view the graph from the side.  Set &apos;plot ab orthogonally&apos; to false to plot them
      separately.
    </description>
    <rule name="Lotka-Volterra" type="formula" wrap="0" neighborhood_type="vertex">
      <param name="timestep">
        0.050000
      </param>
      <param name="D_a">
        1.000000
      </param>
      <param name="D_b">
        1.000000
      </param>
      <param name="alpha">
        1.000000
      </param>
      <param name="beta">
        1.000000
      </param>
      <param name="gamma">
        1.000000
      </param>
      <param name="delta">
        1.000000
      </param>
      <formula number_of_chemicals="2">
        delta_a = D_a * laplacian_a + alpha * a - beta * a * b;
        delta_b = D_b * laplacian_b + delta * a * b - gamma * b;

      </formula>
    </rule>
    <initial_pattern_generator apply_when_loading="true" zero_first="false">
      <overlay chemical="a">
        <overwrite/>
        <white_noise low="0" high="0.5"/>
        <everywhere/>
      </overlay>
      <overlay chemical="b">
        <overwrite/>
        <white_noise low="0" high="0.5"/>
        <everywhere/>
      </overlay>
    </initial_pattern_generator>
    <render_settings>
      <surface_color r="1" g="1" b="1"/>
      <colormap value="spectral"/>
      <color_low r="0" g="0" b="1"/>
      <color_high r="1" g="0" b="0"/>
      <show_color_scale value="true"/>
      <show_multiple_chemicals value="true"/>
      <active_chemical value="b"/>
      <low value="0"/>
      <high value="3"/>
      <vertical_scale_1D value="30"/>
      <vertical_scale_2D value="15"/>
      <contour_level value="0.25"/>
      <cap_contour value="true"/>
      <invert_contour_cap value="false"/>
      <use_wireframe value="false"/>
      <show_cell_edges value="false"/>
      <show_bounding_box value="true"/>
      <show_chemical_label value="true"/>
      <slice_3D value="true"/>
      <slice_3D_axis value="z"/>
      <slice_3D_position value="0.5"/>
      <show_displacement_mapped_surface value="false"/>
      <color_displacement_mapped_surface value="false"/>
      <use_image_interpolation value="true"/>
      <timesteps_per_render value="4"/>
      <show_phase_plot value="true"/>
      <phase_plot_x_axis value="a"/>
      <phase_plot_y_axis value="b"/>
      <phase_plot_z_axis value="c"/>
      <plot_ab_orthogonally value="true"/>
    </render_settings>
  </RD>
  <ImageData WholeExtent="0 255 0 0 0 0" Origin="0 0 0" Spacing="1 1 1" Direction="1 0 0 0 1 0 0 0 1">
  <Piece Extent="0 255 0 0 0 0">
    <PointData>
      <DataArray type="Float32" Name="a" format="binary" RangeMin="0" RangeMax="0">
        AQAAAACAAAAABAAAEQAAAA==eJxjYBgFo2AUjFQAAAQAAAE=
      </DataArray>
      <DataArray type="Float32" Name="b" format="binary" RangeMin="0" RangeMax="0">
        AQAAAACAAAAABAAAEQAAAA==eJxjYBgFo2AUjFQAAAQAAAE=
      </DataArray>
    </PointData>
    <CellData>
    </CellData>
  </Piece>
  </ImageData>
</VTKFile>
