<?xml version="1.0"?>
<VTKFile type="ImageData" version="0.1" byte_order="LittleEndian" compressor="vtkZLibDataCompressor">
  <RD format_version="1">
  
    <description>
        Conway's Game of Life, just because we can. Not an efficient way to do this, since everything is stored as floats.
    </description>

    <rule type="kernel" name="B3/S23">
    
      <kernel number_of_chemicals="1" block_size_x="1" block_size_y="1" block_size_z="1">
        __kernel void rd_compute(__global float* a_in,__global float* a_out) 
        {
            const int x = get_global_id(0);
            const int y = get_global_id(1);
            const int z = get_global_id(2);
            const int X = get_global_size(0);
            const int Y = get_global_size(1);
            const int i_here = X*(Y*z + y) + x;

            const int xm1 = ((x-1+X) &amp; (X-1)); // wrap (assumes X is a power of 2)
            const int xp1 = ((x+1) &amp; (X-1));
            const int ym1 = ((y-1+Y) &amp; (Y-1));
            const int yp1 = ((y+1) &amp; (Y-1));
            const int i_w =  X*(Y*z + y) + xm1;
            const int i_e = X*(Y*z + y) + xp1;
            const int i_n =  X*(Y*z + ym1) + x;
            const int i_s = X*(Y*z + yp1) + x;
            const int i_nw =  X*(Y*z + ym1) + xm1;
            const int i_ne = X*(Y*z + ym1) + xp1;
            const int i_sw =  X*(Y*z + yp1) + xm1;
            const int i_se = X*(Y*z + yp1) + xp1;

            int n = round( a_in[i_n] + a_in[i_ne] + a_in[i_e] + a_in[i_se]
                    + a_in[i_s] + a_in[i_sw] + a_in[i_w] + a_in[i_nw] );
            int a = round( a_in[i_here] );
            if(a==0 &amp;&amp; n==3)
                a_out[i_here] = 1.0f; // B3
            else if(a==1 &amp;&amp; (n==2 || n==3) )
                a_out[i_here] = 1.0f; // S23
            else 
                a_out[i_here]=0.0f;
        }
      </kernel>
      
    </rule>

    <initial_pattern_generator apply_when_loading="true">
      <overlay chemical="a">
        <overwrite />
        <white_noise low="0" high="1" />
        <rectangle>
          <point3D x="0.2" y="0.3" z="0" />
          <point3D x="0.5" y="0.6" z="1" />
        </rectangle>
      </overlay>
    </initial_pattern_generator>

    <render_settings>
        <use_image_interpolation value="false" />
        <vertical_scale_2D value="3" />
        <timesteps_per_render value="1" />
    </render_settings>

    
  </RD>
  <ImageData WholeExtent="0 127 0 63 0 0" Origin="0 0 0" Spacing="1 1 1">
    <Piece Extent="0 127 0 63 0 0">
      <PointData Scalars="Scalars_">
        <DataArray type="Float32" Name="Scalars_" format="appended" RangeMin="0" RangeMax="0" offset="0" />
      </PointData>
      <CellData>
      </CellData>
    </Piece>
  </ImageData>
  <AppendedData encoding="base64">
   _AQAAAACAAAAAAAAANAAAAA==eJztwQEBAAAAgJD+r+4ICgAAAAAAAAAAAAAAAAAAAAAAAAAAAAAAAAAAAAAAAAAYgAAAAQ==
  </AppendedData>
</VTKFile>
