<?xml version="1.0"?>
<VTKFile type="ImageData" version="0.1" byte_order="LittleEndian" header_type="UInt32" compressor="vtkZLibDataCompressor">
  <RD format_version="6">
    <description>
      The &lt;a href=&quot;https://en.wikipedia.org/wiki/Kuramoto%E2%80%93Sivashinsky_equation&quot;&gt;Kuramoto-Sivashinsky equation&lt;/a&gt;, with its range stabilized based on advice from &lt;a href=&quot;https://www.youtube.com/channel/UC1Mo9AoX5desRiFLW_skbEg/featured&quot;&gt;Steffen Richters&lt;/a&gt;.

      The stabilize parameter prevents the values from growing continuously. Set it to zero to see what happens without it.

      In this pattern we have chosen parameters such that only a few peaks can fit inside the region. This causes an
      interesting effect where the peaks are almost stable at times, in one of two configurations. In one the peaks are
      packed in a square grid. In the second they are packed in a hexagonal grid. Over a long period of time the system
      oscillates between these two configurations. Possibly this is a resonance phenomenon, like standing waves in a pool.

    </description>
    <rule name="KSE" type="formula" wrap="1" neighborhood_type="vertex">
      <param name="dx">
        0.250000
      </param>
      <param name="timestep">
        0.000250
      </param>
      <param name="stabilize">
        -0.050000
      </param>
      <param name="gms_weight">
        0.200000
      </param>
      <param name="lapweight">
        -1.000000
      </param>
      <param name="bilapweight">
        -1.000000
      </param>
      <formula number_of_chemicals="1">
        delta_a = bilapweight * bilaplacian_a + lapweight * laplacian_a + gradient_mag_squared_a * gms_weight + a * stabilize;

      </formula>
    </rule>
    <initial_pattern_generator apply_when_loading="true" zero_first="true">
      <overlay chemical="a">
        <overwrite/>
        <white_noise low="55" high="120"/>
        <everywhere/>
      </overlay>
    </initial_pattern_generator>
    <render_settings>
      <surface_color r="1" g="1" b="1"/>
      <colormap value="terrain" />
      <show_color_scale value="true"/>
      <show_multiple_chemicals value="false"/>
      <active_chemical value="a"/>
      <low value="70"/>
      <high value="220"/>
      <vertical_scale_1D value="30"/>
      <vertical_scale_2D value="60"/>
      <contour_level value="0.25"/>
      <cap_contour value="true"/>
      <invert_contour_cap value="false"/>
      <use_wireframe value="false"/>
      <show_cell_edges value="false"/>
      <show_bounding_box value="true"/>
      <show_chemical_label value="true"/>
      <slice_3D value="true"/>
      <slice_3D_axis value="z"/>
      <slice_3D_position value="0.5"/>
      <show_displacement_mapped_surface value="true"/>
      <color_displacement_mapped_surface value="true"/>
      <use_image_interpolation value="true"/>
      <timesteps_per_render value="1344"/>
      <show_phase_plot value="false"/>
      <phase_plot_x_axis value="a"/>
      <phase_plot_y_axis value="b"/>
      <phase_plot_z_axis value="c"/>
    </render_settings>
  </RD>
  <ImageData WholeExtent="0 63 0 63 0 0" Origin="0 0 0" Spacing="1 1 1">
  <Piece Extent="0 63 0 63 0 0">
    <PointData>
      <DataArray type="Float32" Name="a" format="binary" RangeMin="0" RangeMax="0">
        AQAAAACAAAAAQAAAJwAAAA==eJztwTEBAAAAwqD1T20MH6AAAAAAAAAAAAAAAAAAAACAtwFAAAAB
      </DataArray>
    </PointData>
    <CellData>
    </CellData>
  </Piece>
  </ImageData>
</VTKFile>
