<?xml version="1.0"?>
<VTKFile type="ImageData" version="0.1" byte_order="LittleEndian" compressor="vtkZLibDataCompressor">
  <RD format_version="6">

    <description>
        The &lt;a href=&quot;http://en.wikipedia.org/wiki/Schr%C3%B6dinger_equation&quot;&gt;Schrödinger equation&lt;/a&gt; describes the change in the
        wave function for some quantum state. Here a wave packet travels through empty space until it reaches a low energy barrier, which it is able to
        pass over.

        In our implementation, 'a' represents the real part of the complex number and 'b' the imaginary part. A fixed energy background is given by 'c'.

        By changing the values of parameter 'potential' and then using 'Generate Initial Pattern' from the 'Action' menu you can change the height
        of the barrier. Or you can paint directly into 'c'.

        By default we plot 'a' and 'b' on orthogonal axes to show the rotation. Set 'plot ab orthogonally'
        below to false to plot them as separate lines on the graph.

        Instabilities appear after around 1.4M steps, because we are only using simple numerical methods.
    </description>

    <rule type="formula" name="Schrodinger equation" wrap="0">

      <param name="timestep">    0.001    </param>
      <param name="potential">   0.1      </param>

      <formula number_of_chemicals="3">
        delta_a = -laplacian_b - c*b;
        delta_b =  laplacian_a + c*a;
      </formula>

    </rule>

    <initial_pattern_generator apply_when_loading="true">

      <overlay chemical="a">
        <overwrite />
        <sine amplitude="1" phase="0">
          <point3D x="0" y="0" z="0" />
          <point3D x="0.03" y="0" z="0" />
        </sine>
        <everywhere />
      </overlay>
      <overlay chemical="a">
        <multiply />
        <gaussian height="1" sigma="0.03">
          <point3D x="0.2" y="0.5" z="0.5" />
        </gaussian>
        <everywhere />
      </overlay>

      <overlay chemical="b">
        <overwrite />
        <sine amplitude="1" phase="1.5708">
          <point3D x="0" y="0" z="0" />
          <point3D x="0.03" y="0" z="0" />
        </sine>
        <everywhere />
      </overlay>
      <overlay chemical="b">
        <multiply />
        <gaussian height="1" sigma="0.03">
          <point3D x="0.2" y="0.5" z="0.5" />
        </gaussian>
        <everywhere />
      </overlay>

      <overlay chemical="c">
        <overwrite />
        <parameter name="potential" />
        <rectangle>
          <point3d x="0.4" y="0.4" z="0.4" />
          <point3d x="0.45" y="0.6" z="0.6" />
        </rectangle>
      </overlay>

    </initial_pattern_generator>

    <render_settings>
       <active_chemical value="a" />
       <show_displacement_mapped_surface value="true" />
       <color_displacement_mapped_surface value="false" />
       <low value="-1" />
       <high value="1" />
       <vertical_scale_1D value="100" />
       <vertical_scale_2D value="100" />
       <timesteps_per_render value="1024" />
       <plot_ab_orthogonally value="true" />
    </render_settings>

  </RD>
  <ImageData WholeExtent="0 511 0 0 0 0" Origin="0 0 0" Spacing="1 1 1">
  <Piece Extent="0 511 0 0 0 0">
    <PointData>
      <DataArray type="Float32" Name="a" format="binary" RangeMin="0" RangeMax="0">
        AQAAAACAAAAACAAAFwAAAA==eJxjYBgFo2AUjIJRMApGwUgDAAgAAAE=
      </DataArray>
      <DataArray type="Float32" Name="b" format="binary" RangeMin="0" RangeMax="0">
        AQAAAACAAAAACAAAFwAAAA==eJxjYBgFo2AUjIJRMApGwUgDAAgAAAE=
      </DataArray>
      <DataArray type="Float32" Name="c" format="binary" RangeMin="0" RangeMax="0">
        AQAAAACAAAAACAAAFwAAAA==eJxjYBgFo2AUjIJRMApGwUgDAAgAAAE=
      </DataArray>
    </PointData>
    <CellData>
    </CellData>
  </Piece>
  </ImageData>
</VTKFile>
